phonopy:
  version: "2.31.2"
  frequency_unit_conversion_factor: 15.633302
  symmetry_tolerance: 1.00000e-05

space_group:
  type: "Pm-3n"
  number: 223
  Hall_symbol: "-P 4n 2 3"

primitive_matrix:
- [  1.000000000000000,  0.000000000000000,  0.000000000000000 ]
- [  0.000000000000000,  1.000000000000000,  0.000000000000000 ]
- [  0.000000000000000,  0.000000000000000,  1.000000000000000 ]

supercell_matrix:
- [   2,   0,   0 ]
- [   0,   2,   0 ]
- [   0,   0,   2 ]

primitive_cell:
  lattice:
  - [     5.087958816375299,     0.000000000000000,     0.000000000000000 ] # a
  - [     0.000000000000000,     5.087958816375299,     0.000000000000000 ] # b
  - [     0.000000000000000,     0.000000000000000,     5.087958816375299 ] # c
  points:
  - symbol: Au # 1
    coordinates: [  0.000000000000000,  0.000000000000000,  0.000000000000000 ]
    mass: 196.966569
  - symbol: Au # 2
    coordinates: [  0.500000000000000,  0.500000000000000,  0.500000000000000 ]
    mass: 196.966569
  - symbol: Ti # 3
    coordinates: [  0.250000000000000,  0.000000000000000,  0.500000000000000 ]
    mass: 47.867000
  - symbol: Ti # 4
    coordinates: [  0.750000000000000,  0.000000000000000,  0.500000000000000 ]
    mass: 47.867000
  - symbol: Ti # 5
    coordinates: [  0.000000000000000,  0.500000000000000,  0.250000000000000 ]
    mass: 47.867000
  - symbol: Ti # 6
    coordinates: [  0.000000000000000,  0.500000000000000,  0.750000000000000 ]
    mass: 47.867000
  - symbol: Ti # 7
    coordinates: [  0.500000000000000,  0.250000000000000,  0.000000000000000 ]
    mass: 47.867000
  - symbol: Ti # 8
    coordinates: [  0.500000000000000,  0.750000000000000,  0.000000000000000 ]
    mass: 47.867000
  reciprocal_lattice: # without 2pi
  - [     0.196542471370161,     0.000000000000000,     0.000000000000000 ] # a*
  - [     0.000000000000000,     0.196542471370161,     0.000000000000000 ] # b*
  - [     0.000000000000000,     0.000000000000000,     0.196542471370161 ] # c*

unit_cell:
  lattice:
  - [     5.087958816375299,     0.000000000000000,     0.000000000000000 ] # a
  - [     0.000000000000000,     5.087958816375299,     0.000000000000000 ] # b
  - [     0.000000000000000,     0.000000000000000,     5.087958816375299 ] # c
  points:
  - symbol: Au # 1
    coordinates: [  0.000000000000000,  0.000000000000000,  0.000000000000000 ]
    mass: 196.966569
    reduced_to: 1
  - symbol: Au # 2
    coordinates: [  0.500000000000000,  0.500000000000000,  0.500000000000000 ]
    mass: 196.966569
    reduced_to: 2
  - symbol: Ti # 3
    coordinates: [  0.250000000000000,  0.000000000000000,  0.500000000000000 ]
    mass: 47.867000
    reduced_to: 3
  - symbol: Ti # 4
    coordinates: [  0.750000000000000,  0.000000000000000,  0.500000000000000 ]
    mass: 47.867000
    reduced_to: 4
  - symbol: Ti # 5
    coordinates: [  0.000000000000000,  0.500000000000000,  0.250000000000000 ]
    mass: 47.867000
    reduced_to: 5
  - symbol: Ti # 6
    coordinates: [  0.000000000000000,  0.500000000000000,  0.750000000000000 ]
    mass: 47.867000
    reduced_to: 6
  - symbol: Ti # 7
    coordinates: [  0.500000000000000,  0.250000000000000,  0.000000000000000 ]
    mass: 47.867000
    reduced_to: 7
  - symbol: Ti # 8
    coordinates: [  0.500000000000000,  0.750000000000000,  0.000000000000000 ]
    mass: 47.867000
    reduced_to: 8

supercell:
  lattice:
  - [    10.175917632750599,     0.000000000000000,     0.000000000000000 ] # a
  - [     0.000000000000000,    10.175917632750599,     0.000000000000000 ] # b
  - [     0.000000000000000,     0.000000000000000,    10.175917632750599 ] # c
  points:
  - symbol: Au # 1
    coordinates: [  0.000000000000000,  0.000000000000000,  0.000000000000000 ]
    mass: 196.966569
    reduced_to: 1
  - symbol: Au # 2
    coordinates: [  0.500000000000000,  0.000000000000000,  0.000000000000000 ]
    mass: 196.966569
    reduced_to: 1
  - symbol: Au # 3
    coordinates: [  0.000000000000000,  0.500000000000000,  0.000000000000000 ]
    mass: 196.966569
    reduced_to: 1
  - symbol: Au # 4
    coordinates: [  0.500000000000000,  0.500000000000000,  0.000000000000000 ]
    mass: 196.966569
    reduced_to: 1
  - symbol: Au # 5
    coordinates: [  0.000000000000000,  0.000000000000000,  0.500000000000000 ]
    mass: 196.966569
    reduced_to: 1
  - symbol: Au # 6
    coordinates: [  0.500000000000000,  0.000000000000000,  0.500000000000000 ]
    mass: 196.966569
    reduced_to: 1
  - symbol: Au # 7
    coordinates: [  0.000000000000000,  0.500000000000000,  0.500000000000000 ]
    mass: 196.966569
    reduced_to: 1
  - symbol: Au # 8
    coordinates: [  0.500000000000000,  0.500000000000000,  0.500000000000000 ]
    mass: 196.966569
    reduced_to: 1
  - symbol: Au # 9
    coordinates: [  0.250000000000000,  0.250000000000000,  0.250000000000000 ]
    mass: 196.966569
    reduced_to: 9
  - symbol: Au # 10
    coordinates: [  0.750000000000000,  0.250000000000000,  0.250000000000000 ]
    mass: 196.966569
    reduced_to: 9
  - symbol: Au # 11
    coordinates: [  0.250000000000000,  0.750000000000000,  0.250000000000000 ]
    mass: 196.966569
    reduced_to: 9
  - symbol: Au # 12
    coordinates: [  0.750000000000000,  0.750000000000000,  0.250000000000000 ]
    mass: 196.966569
    reduced_to: 9
  - symbol: Au # 13
    coordinates: [  0.250000000000000,  0.250000000000000,  0.750000000000000 ]
    mass: 196.966569
    reduced_to: 9
  - symbol: Au # 14
    coordinates: [  0.750000000000000,  0.250000000000000,  0.750000000000000 ]
    mass: 196.966569
    reduced_to: 9
  - symbol: Au # 15
    coordinates: [  0.250000000000000,  0.750000000000000,  0.750000000000000 ]
    mass: 196.966569
    reduced_to: 9
  - symbol: Au # 16
    coordinates: [  0.750000000000000,  0.750000000000000,  0.750000000000000 ]
    mass: 196.966569
    reduced_to: 9
  - symbol: Ti # 17
    coordinates: [  0.125000000000000,  0.000000000000000,  0.250000000000000 ]
    mass: 47.867000
    reduced_to: 17
  - symbol: Ti # 18
    coordinates: [  0.625000000000000,  0.000000000000000,  0.250000000000000 ]
    mass: 47.867000
    reduced_to: 17
  - symbol: Ti # 19
    coordinates: [  0.125000000000000,  0.500000000000000,  0.250000000000000 ]
    mass: 47.867000
    reduced_to: 17
  - symbol: Ti # 20
    coordinates: [  0.625000000000000,  0.500000000000000,  0.250000000000000 ]
    mass: 47.867000
    reduced_to: 17
  - symbol: Ti # 21
    coordinates: [  0.125000000000000,  0.000000000000000,  0.750000000000000 ]
    mass: 47.867000
    reduced_to: 17
  - symbol: Ti # 22
    coordinates: [  0.625000000000000,  0.000000000000000,  0.750000000000000 ]
    mass: 47.867000
    reduced_to: 17
  - symbol: Ti # 23
    coordinates: [  0.125000000000000,  0.500000000000000,  0.750000000000000 ]
    mass: 47.867000
    reduced_to: 17
  - symbol: Ti # 24
    coordinates: [  0.625000000000000,  0.500000000000000,  0.750000000000000 ]
    mass: 47.867000
    reduced_to: 17
  - symbol: Ti # 25
    coordinates: [  0.375000000000000,  0.000000000000000,  0.250000000000000 ]
    mass: 47.867000
    reduced_to: 25
  - symbol: Ti # 26
    coordinates: [  0.875000000000000,  0.000000000000000,  0.250000000000000 ]
    mass: 47.867000
    reduced_to: 25
  - symbol: Ti # 27
    coordinates: [  0.375000000000000,  0.500000000000000,  0.250000000000000 ]
    mass: 47.867000
    reduced_to: 25
  - symbol: Ti # 28
    coordinates: [  0.875000000000000,  0.500000000000000,  0.250000000000000 ]
    mass: 47.867000
    reduced_to: 25
  - symbol: Ti # 29
    coordinates: [  0.375000000000000,  0.000000000000000,  0.750000000000000 ]
    mass: 47.867000
    reduced_to: 25
  - symbol: Ti # 30
    coordinates: [  0.875000000000000,  0.000000000000000,  0.750000000000000 ]
    mass: 47.867000
    reduced_to: 25
  - symbol: Ti # 31
    coordinates: [  0.375000000000000,  0.500000000000000,  0.750000000000000 ]
    mass: 47.867000
    reduced_to: 25
  - symbol: Ti # 32
    coordinates: [  0.875000000000000,  0.500000000000000,  0.750000000000000 ]
    mass: 47.867000
    reduced_to: 25
  - symbol: Ti # 33
    coordinates: [  0.000000000000000,  0.250000000000000,  0.125000000000000 ]
    mass: 47.867000
    reduced_to: 33
  - symbol: Ti # 34
    coordinates: [  0.500000000000000,  0.250000000000000,  0.125000000000000 ]
    mass: 47.867000
    reduced_to: 33
  - symbol: Ti # 35
    coordinates: [  0.000000000000000,  0.750000000000000,  0.125000000000000 ]
    mass: 47.867000
    reduced_to: 33
  - symbol: Ti # 36
    coordinates: [  0.500000000000000,  0.750000000000000,  0.125000000000000 ]
    mass: 47.867000
    reduced_to: 33
  - symbol: Ti # 37
    coordinates: [  0.000000000000000,  0.250000000000000,  0.625000000000000 ]
    mass: 47.867000
    reduced_to: 33
  - symbol: Ti # 38
    coordinates: [  0.500000000000000,  0.250000000000000,  0.625000000000000 ]
    mass: 47.867000
    reduced_to: 33
  - symbol: Ti # 39
    coordinates: [  0.000000000000000,  0.750000000000000,  0.625000000000000 ]
    mass: 47.867000
    reduced_to: 33
  - symbol: Ti # 40
    coordinates: [  0.500000000000000,  0.750000000000000,  0.625000000000000 ]
    mass: 47.867000
    reduced_to: 33
  - symbol: Ti # 41
    coordinates: [  0.000000000000000,  0.250000000000000,  0.375000000000000 ]
    mass: 47.867000
    reduced_to: 41
  - symbol: Ti # 42
    coordinates: [  0.500000000000000,  0.250000000000000,  0.375000000000000 ]
    mass: 47.867000
    reduced_to: 41
  - symbol: Ti # 43
    coordinates: [  0.000000000000000,  0.750000000000000,  0.375000000000000 ]
    mass: 47.867000
    reduced_to: 41
  - symbol: Ti # 44
    coordinates: [  0.500000000000000,  0.750000000000000,  0.375000000000000 ]
    mass: 47.867000
    reduced_to: 41
  - symbol: Ti # 45
    coordinates: [  0.000000000000000,  0.250000000000000,  0.875000000000000 ]
    mass: 47.867000
    reduced_to: 41
  - symbol: Ti # 46
    coordinates: [  0.500000000000000,  0.250000000000000,  0.875000000000000 ]
    mass: 47.867000
    reduced_to: 41
  - symbol: Ti # 47
    coordinates: [  0.000000000000000,  0.750000000000000,  0.875000000000000 ]
    mass: 47.867000
    reduced_to: 41
  - symbol: Ti # 48
    coordinates: [  0.500000000000000,  0.750000000000000,  0.875000000000000 ]
    mass: 47.867000
    reduced_to: 41
  - symbol: Ti # 49
    coordinates: [  0.250000000000000,  0.125000000000000,  0.000000000000000 ]
    mass: 47.867000
    reduced_to: 49
  - symbol: Ti # 50
    coordinates: [  0.750000000000000,  0.125000000000000,  0.000000000000000 ]
    mass: 47.867000
    reduced_to: 49
  - symbol: Ti # 51
    coordinates: [  0.250000000000000,  0.625000000000000,  0.000000000000000 ]
    mass: 47.867000
    reduced_to: 49
  - symbol: Ti # 52
    coordinates: [  0.750000000000000,  0.625000000000000,  0.000000000000000 ]
    mass: 47.867000
    reduced_to: 49
  - symbol: Ti # 53
    coordinates: [  0.250000000000000,  0.125000000000000,  0.500000000000000 ]
    mass: 47.867000
    reduced_to: 49
  - symbol: Ti # 54
    coordinates: [  0.750000000000000,  0.125000000000000,  0.500000000000000 ]
    mass: 47.867000
    reduced_to: 49
  - symbol: Ti # 55
    coordinates: [  0.250000000000000,  0.625000000000000,  0.500000000000000 ]
    mass: 47.867000
    reduced_to: 49
  - symbol: Ti # 56
    coordinates: [  0.750000000000000,  0.625000000000000,  0.500000000000000 ]
    mass: 47.867000
    reduced_to: 49
  - symbol: Ti # 57
    coordinates: [  0.250000000000000,  0.375000000000000,  0.000000000000000 ]
    mass: 47.867000
    reduced_to: 57
  - symbol: Ti # 58
    coordinates: [  0.750000000000000,  0.375000000000000,  0.000000000000000 ]
    mass: 47.867000
    reduced_to: 57
  - symbol: Ti # 59
    coordinates: [  0.250000000000000,  0.875000000000000,  0.000000000000000 ]
    mass: 47.867000
    reduced_to: 57
  - symbol: Ti # 60
    coordinates: [  0.750000000000000,  0.875000000000000,  0.000000000000000 ]
    mass: 47.867000
    reduced_to: 57
  - symbol: Ti # 61
    coordinates: [  0.250000000000000,  0.375000000000000,  0.500000000000000 ]
    mass: 47.867000
    reduced_to: 57
  - symbol: Ti # 62
    coordinates: [  0.750000000000000,  0.375000000000000,  0.500000000000000 ]
    mass: 47.867000
    reduced_to: 57
  - symbol: Ti # 63
    coordinates: [  0.250000000000000,  0.875000000000000,  0.500000000000000 ]
    mass: 47.867000
    reduced_to: 57
  - symbol: Ti # 64
    coordinates: [  0.750000000000000,  0.875000000000000,  0.500000000000000 ]
    mass: 47.867000
    reduced_to: 57

displacements:
- atom:    1
  displacement:
    [   0.0100000000000000,  0.0000000000000000,  0.0000000000000000 ]
- atom:   17
  displacement:
    [   0.0070710678118655,  0.0070710678118655,  0.0000000000000000 ]
- atom:   17
  displacement:
    [  -0.0070710678118655, -0.0070710678118655,  0.0000000000000000 ]
